5    
Scan Cycle 1/13 ; Distance 1-2 = 1.80 ; Iteration 4 Energy -470.92614226
Pd      -0.1024310259    0.0025140606    0.0000000000
P        1.6975689619    0.0027306151    0.0000000000
H        2.4674005410    1.2127044727   -0.0000000000
H        2.4669265143   -0.6027064395    1.0480478534
H        2.4669265143   -0.6027064395   -1.0480478534
5    
Scan Cycle 2/13 ; Distance 1-2 = 2.07 ; Iteration 4 Energy -470.99161589
Pd      -0.2959495073    0.0061648381    0.0000000000
P        1.7707171399    0.0064490663    0.0000000000
H        2.5121068176    1.2261063480    0.0000000000
H        2.5112783292   -0.6040614628    1.0565337654
H        2.5112783292   -0.6040614628   -1.0565337654
5    
Scan Cycle 3/13 ; Distance 1-2 = 2.33 ; Iteration 4 Energy -470.99240287
Pd      -0.4990701338    0.0101323714    0.0000000000
P        1.8342630885    0.0108583620    0.0000000000
H        2.5643459586    1.2337570148    0.0000000000
H        2.5632580939   -0.6014357955    1.0594104752
H        2.5632580939   -0.6014357955   -1.0594104752
5    
Scan Cycle 4/13 ; Distance 1-2 = 2.60 ; Iteration 3 Energy -470.97794476
Pd      -0.7084666338    0.0130287516    0.0000000000
P        1.8915329789    0.0144909025    0.0000000000
H        2.6224099409    1.2358147608    0.0000000000
H        2.6211089842   -0.5971668131    1.0580987559
H        2.6211089842   -0.5971668131   -1.0580987559
5    
Scan Cycle 5/13 ; Distance 1-2 = 2.87 ; Iteration 4 Energy -470.96385848
Pd      -0.9192706272    0.0169282153    0.0000000000
P        1.9473945696    0.0198487735    0.0000000000
H        2.6866298045    1.2372335973    0.0000000000
H        2.6848745983   -0.5901170470    1.0548499871
H        2.6848745983   -0.5901170470   -1.0548499871
5    
Scan Cycle 6/13 ; Distance 1-2 = 3.13 ; Iteration 4 Energy -470.95370160
Pd      -1.1319267483    0.0201966726    0.0000000000
P        2.0014030178    0.0249383797   -0.0000000000
H        2.7507164645    1.2375762950   -0.0000000000
H        2.7483891913   -0.5830224557    1.0509464544
H        2.7483891913   -0.5830224557   -1.0509464544
5    
Scan Cycle 7/13 ; Distance 1-2 = 3.40 ; Iteration 4 Energy -470.94721572
Pd      -1.3454576992    0.0224888861    0.0000000000
P        2.0545343203    0.0298761483    0.0000000000
H        2.8139935775    1.2376956940    0.0000000000
H        2.8103089805   -0.5765399836    1.0472753769
H        2.8103089805   -0.5765399836   -1.0472753768
5    
Scan Cycle 8/13 ; Distance 1-2 = 3.67 ; Iteration 4 Energy -470.94333290
Pd      -1.5589391259    0.0242078407    0.0000000000
P        2.1077127323    0.0346484847    0.0000000000
H        2.8754557972    1.2384496293    0.0000000000
H        2.8702086006   -0.5707692283    1.0443853170
H        2.8702086006   -0.5707692283   -1.0443853170
5    
Scan Cycle 9/13 ; Distance 1-2 = 3.93 ; Iteration 3 Energy -470.94110046
Pd      -1.7726940004    0.0250336878    0.0000000000
P        2.1606173228    0.0381921842    0.0000000000
H        2.9341613914    1.2391153620    0.0000000000
H        2.9275591481   -0.5666758410    1.0424135197
H        2.9275591481   -0.5666758410   -1.0424135197
5    
Scan Cycle 10/13 ; Distance 1-2 = 4.20 ; Iteration 3 Energy -470.93985233
Pd      -1.9853543184    0.0256301164    0.0000000000
P        2.2146147177    0.0417576239    0.0000000000
H        2.9925464967    1.2404147486    0.0000000000
H        2.9843911979   -0.5629944392    1.0410473056
H        2.9843911979   -0.5629944392   -1.0410473056
5    
Scan Cycle 11/13 ; Distance 1-2 = 4.47 ; Iteration 2 Energy -470.93914885
Pd      -2.1978999354    0.0255748423    0.0000000000
P        2.2687296851    0.0437667207    0.0000000000
H        3.0485206048    1.2414290196    0.0000000000
H        3.0394347583   -0.5611048149    1.0405388556
H        3.0394347583   -0.5611048149   -1.0405388556
5    
Scan Cycle 12/13 ; Distance 1-2 = 4.73 ; Iteration 2 Energy -470.93873944
Pd      -2.4106638720    0.0254098210    0.0000000000
P        2.3226256425    0.0457768607    0.0000000000
H        3.1046518735    1.2422353758    0.0000000000
H        3.0945821213   -0.5591399750    1.0398779988
H        3.0945821213   -0.5591399750   -1.0398779988
5    
Scan Cycle 13/13 ; Distance 1-2 = 5.00 ; Iteration 2 Energy -470.93849489
Pd      -2.6233189720    0.0251613263    0.0000000000
P        2.3766298911    0.0477747329    0.0000000000
H        3.1605103737    1.2432054262    0.0000000000
H        3.1494328829   -0.5572890970    1.0393780934
H        3.1494328829   -0.5572890970   -1.0393780934
